VARIABLES = X,Y,Z,PERMEABILITY
ZONE T = DEFAULT, N = 6337, E = 6336, F = FEPOINT, ET = TRIANGLE
1.030610152128e-03 0.000000000000e+00 0.000000000000e+00 1.040824578225e-04
1.025647482551e-03 1.010174599062e-04 0.000000000000e+00 1.040834432781e-04
1.010807267042e-03 2.010620664518e-04 0.000000000000e+00 1.040844019508e-04
9.862324249867e-04 2.991703353858e-04 0.000000000000e+00 1.040853245587e-04
9.521596255497e-04 3.943974304468e-04 0.000000000000e+00 1.040862021801e-04
9.089170084153e-04 4.858262626531e-04 0.000000000000e+00 1.040870263406e-04
8.569210236252e-04 5.725763223703e-04 0.000000000000e+00 1.040877890959e-04
7.966724209370e-04 6.538121591011e-04 0.000000000000e+00 1.040884831084e-04
7.287514273297e-04 7.287514273297e-04 0.000000000000e+00 1.040891017175e-04
6.538121591011e-04 7.966724209370e-04 0.000000000000e+00 1.040896390031e-04
5.725763223703e-04 8.569210236252e-04 0.000000000000e+00 1.040900898406e-04
4.858262626531e-04 9.089170084153e-04 0.000000000000e+00 1.040904499490e-04
3.943974304468e-04 9.521596255497e-04 0.000000000000e+00 1.040907159295e-04
2.991703353858e-04 9.862324249867e-04 0.000000000000e+00 1.040908852953e-04
2.010620664518e-04 1.010807267042e-03 0.000000000000e+00 1.040909564930e-04
1.010174599062e-04 1.025647482551e-03 0.000000000000e+00 1.040909289146e-04
6.310667119864e-20 1.030610152128e-03 0.000000000000e+00 1.040908029001e-04
-1.010174599062e-04 1.025647482551e-03 0.000000000000e+00 1.040905797316e-04
-2.010620664518e-04 1.010807267042e-03 0.000000000000e+00 1.040902616182e-04
-2.991703353858e-04 9.862324249867e-04 0.000000000000e+00 1.040898516724e-04
-3.943974304468e-04 9.521596255497e-04 0.000000000000e+00 1.040893538786e-04
-4.858262626531e-04 9.089170084153e-04 0.000000000000e+00 1.040887730528e-04
-5.725763223703e-04 8.569210236252e-04 0.000000000000e+00 1.040881147959e-04
-6.538121591011e-04 7.966724209370e-04 0.000000000000e+00 1.040873854392e-04
-7.287514273297e-04 7.287514273297e-04 0.000000000000e+00 1.040865919838e-04
-7.966724209370e-04 6.538121591011e-04 0.000000000000e+00 1.040857420341e-04
-8.569210236252e-04 5.725763223703e-04 0.000000000000e+00 1.040848437260e-04
-9.089170084153e-04 4.858262626531e-04 0.000000000000e+00 1.040839056503e-04
-9.521596255497e-04 3.943974304468e-04 0.000000000000e+00 1.040829367726e-04
-9.862324249867e-04 2.991703353858e-04 0.000000000000e+00 1.040819463493e-04
-1.010807267042e-03 2.010620664518e-04 0.000000000000e+00 1.040809438412e-04
-1.025647482551e-03 1.010174599062e-04 0.000000000000e+00 1.040799388260e-04
-1.030610152128e-03 1.262133423973e-19 0.000000000000e+00 1.040789409080e-04
-1.025647482551e-03 -1.010174599062e-04 0.000000000000e+00 1.040779596294e-04
-1.010807267042e-03 -2.010620664518e-04 0.000000000000e+00 1.040770043804e-04
-9.862324249867e-04 -2.991703353858e-04 0.000000000000e+00 1.040760843114e-04
-9.521596255497e-04 -3.943974304468e-04 0.000000000000e+00 1.040752082465e-04
-9.089170084153e-04 -4.858262626531e-04 0.000000000000e+00 1.040743846004e-04
-8.569210236252e-04 -5.725763223703e-04 0.000000000000e+00 1.040736212975e-04
-7.966724209370e-04 -6.538121591011e-04 0.000000000000e+00 1.040729256965e-04
-7.287514273297e-04 -7.287514273297e-04 0.000000000000e+00 1.040723045190e-04
-6.538121591011e-04 -7.966724209370e-04 0.000000000000e+00 1.040717637840e-04
-5.725763223703e-04 -8.569210236252e-04 0.000000000000e+00 1.040713087483e-04
-4.858262626531e-04 -9.089170084153e-04 0.000000000000e+00 1.040709438545e-04
-3.943974304468e-04 -9.521596255497e-04 0.000000000000e+00 1.040706726853e-04
-2.991703353858e-04 -9.862324249867e-04 0.000000000000e+00 1.040704979268e-04
-2.010620664518e-04 -1.010807267042e-03 0.000000000000e+00 1.040704213396e-04
-1.010174599062e-04 -1.025647482551e-03 0.000000000000e+00 1.040704437389e-04
-1.893200135959e-19 -1.030610152128e-03 0.000000000000e+00 1.040705649838e-04
1.010174599062e-04 -1.025647482551e-03 0.000000000000e+00 1.040707839754e-04
2.010620664518e-04 -1.010807267042e-03 0.000000000000e+00 1.040710986651e-04
2.991703353858e-04 -9.862324249867e-04 0.000000000000e+00 1.040715060720e-04
3.943974304468e-04 -9.521596255497e-04 0.000000000000e+00 1.040720023093e-04
4.858262626531e-04 -9.089170084153e-04 0.000000000000e+00 1.040725826207e-04
5.725763223703e-04 -8.569210236252e-04 0.000000000000e+00 1.040732414251e-04
6.538121591011e-04 -7.966724209370e-04 0.000000000000e+00 1.040739723703e-04
7.287514273297e-04 -7.287514273297e-04 0.000000000000e+00 1.040747683941e-04
7.966724209370e-04 -6.538121591011e-04 0.000000000000e+00 1.040756217933e-04
8.569210236252e-04 -5.725763223703e-04 0.000000000000e+00 1.040765242995e-04
9.089170084153e-04 -4.858262626531e-04 0.000000000000e+00 1.040774671606e-04
9.521596255497e-04 -3.943974304468e-04 0.000000000000e+00 1.040784412270e-04
9.862324249867e-04 -2.991703353858e-04 0.000000000000e+00 1.040794370431e-04
1.010807267042e-03 -2.010620664518e-04 0.000000000000e+00 1.040804449406e-04
1.025647482551e-03 -1.010174599062e-04 0.000000000000e+00 1.040814551349e-04
8.244881217027e-03 0.000000000000e+00 0.000000000000e+00 1.040877479022e-04
8.205179860412e-03 8.081396792499e-04 0.000000000000e+00 1.040917629320e-04
8.086458136333e-03 1.608496531615e-03 0.000000000000e+00 1.040956657973e-04
7.889859399894e-03 2.393362683086e-03 0.000000000000e+00 1.040994182453e-04
7.617277004398e-03 3.155179443574e-03 0.000000000000e+00 1.041029836472e-04
7.271336067322e-03 3.886610101224e-03 0.000000000000e+00 1.041063273695e-04
6.855368189002e-03 4.580610578963e-03 0.000000000000e+00 1.041094171191e-04
6.373379367496e-03 5.230497272809e-03 0.000000000000e+00 1.041122232572e-04
5.830011418637e-03 5.830011418637e-03 0.000000000000e+00 1.041147190797e-04
5.230497272809e-03 6.373379367496e-03 0.000000000000e+00 1.041168810614e-04
4.580610578963e-03 6.855368189002e-03 0.000000000000e+00 1.041186890624e-04
3.886610101224e-03 7.271336067322e-03 0.000000000000e+00 1.041201264952e-04
3.155179443574e-03 7.617277004398e-03 0.000000000000e+00 1.041211804516e-04
2.393362683086e-03 7.889859399894e-03 0.000000000000e+00 1.041218417916e-04
1.608496531615e-03 8.086458136333e-03 0.000000000000e+00 1.041221051914e-04
8.081396792499e-04 8.205179860412e-03 0.000000000000e+00 1.041219691548e-04
5.048533695891e-19 8.244881217027e-03 0.000000000000e+00 1.041214359877e-04
-8.081396792499e-04 8.205179860412e-03 0.000000000000e+00 1.041205117376e-04
-1.608496531615e-03 8.086458136333e-03 0.000000000000e+00 1.041192061011e-04
-2.393362683086e-03 7.889859399894e-03 0.000000000000e+00 1.041175323005e-04
-3.155179443574e-03 7.617277004398e-03 0.000000000000e+00 1.041155069316e-04
-3.886610101224e-03 7.271336067322e-03 0.000000000000e+00 1.041131497873e-04
-4.580610578963e-03 6.855368189002e-03 0.000000000000e+00 1.041104836556e-04
-5.230497272809e-03 6.373379367496e-03 0.000000000000e+00 1.041075340979e-04
-5.830011418637e-03 5.830011418637e-03 0.000000000000e+00 1.041043292077e-04
-6.373379367496e-03 5.230497272809e-03 0.000000000000e+00 1.041008993520e-04
-6.855368189002e-03 4.580610578963e-03 0.000000000000e+00 1.040972768981e-04
-7.271336067322e-03 3.886610101224e-03 0.000000000000e+00 1.040934959275e-04
-7.617277004398e-03 3.155179443574e-03 0.000000000000e+00 1.040895919381e-04
-7.889859399894e-03 2.393362683086e-03 0.000000000000e+00 1.040856015369e-04
-8.086458136333e-03 1.608496531615e-03 0.000000000000e+00 1.040815621251e-04
-8.205179860412e-03 8.081396792499e-04 0.000000000000e+00 1.040775115768e-04
-8.244881217027e-03 1.009706739178e-18 0.000000000000e+00 1.040734879126e-04
-8.205179860412e-03 -8.081396792499e-04 0.000000000000e+00 1.040695289716e-04
-8.086458136333e-03 -1.608496531615e-03 0.000000000000e+00 1.040656720807e-04
-7.889859399894e-03 -2.393362683086e-03 0.000000000000e+00 1.040619537257e-04
-7.617277004398e-03 -3.155179443574e-03 0.000000000000e+00 1.040584092254e-04
-7.271336067322e-03 -3.886610101224e-03 0.000000000000e+00 1.040550724099e-04
-6.855368189002e-03 -4.580610578963e-03 0.000000000000e+00 1.040519753070e-04
-6.373379367496e-03 -5.230497272809e-03 0.000000000000e+00 1.040491478380e-04
-5.830011418637e-03 -5.830011418637e-03 0.000000000000e+00 1.040466175269e-04
-5.230497272809e-03 -6.373379367496e-03 0.000000000000e+00 1.040444092240e-04
-4.580610578963e-03 -6.855368189002e-03 0.000000000000e+00 1.040425448496e-04
-3.886610101224e-03 -7.271336067322e-03 0.000000000000e+00 1.040410431576e-04
-3.155179443574e-03 -7.617277004398e-03 0.000000000000e+00 1.040399195254e-04
-2.393362683086e-03 -7.889859399894e-03 0.000000000000e+00 1.040391857710e-04
-1.608496531615e-03 -8.086458136333e-03 0.000000000000e+00 1.040388500007e-04
-8.081396792499e-04 -8.205179860412e-03 0.000000000000e+00 1.040389164921e-04
-1.514560108767e-18 -8.244881217027e-03 0.000000000000e+00 1.040393856118e-04
8.081396792499e-04 -8.205179860412e-03 0.000000000000e+00 1.040402537735e-04
1.608496531615e-03 -8.086458136333e-03 0.000000000000e+00 1.040415134360e-04
2.393362683086e-03 -7.889859399894e-03 0.000000000000e+00 1.040431531439e-04
3.155179443574e-03 -7.617277004398e-03 0.000000000000e+00 1.040451576114e-04
3.886610101224e-03 -7.271336067322e-03 0.000000000000e+00 1.040475078489e-04
4.580610578963e-03 -6.855368189002e-03 0.000000000000e+00 1.040501813338e-04
5.230497272809e-03 -6.373379367496e-03 0.000000000000e+00 1.040531522221e-04
5.830011418637e-03 -5.830011418637e-03 0.000000000000e+00 1.040563916006e-04
6.373379367496e-03 -5.230497272809e-03 0.000000000000e+00 1.040598677770e-04
6.855368189002e-03 -4.580610578963e-03 0.000000000000e+00 1.040635466039e-04
7.271336067322e-03 -3.886610101224e-03 0.000000000000e+00 1.040673918335e-04
7.617277004398e-03 -3.155179443574e-03 0.000000000000e+00 1.040713654984e-04
7.889859399894e-03 -2.393362683086e-03 0.000000000000e+00 1.040754283141e-04
8.086458136333e-03 -1.608496531615e-03 0.000000000000e+00 1.040795400964e-04
8.205179860412e-03 -8.081396792499e-04 0.000000000000e+00 1.040836601902e-04
2.782647410747e-02 0.000000000000e+00 0.000000000000e+00 1.040995880340e-04
2.769248202889e-02 2.727471417468e-03 0.000000000000e+00 1.041106609853e-04
2.729179621012e-02 5.428675794199e-03 0.000000000000e+00 1.041214069289e-04
2.662827547464e-02 8.077599055415e-03 0.000000000000e+00 1.041317178690e-04
2.570830988984e-02 1.064873062206e-02 0.000000000000e+00 1.041414912152e-04
2.454075922721e-02 1.311730909163e-02 0.000000000000e+00 1.041506308964e-04
2.313686763788e-02 1.545956070400e-02 0.000000000000e+00 1.041590483579e-04
2.151015536530e-02 1.765292829573e-02 0.000000000000e+00 1.041666634283e-04
1.967628853790e-02 1.967628853790e-02 0.000000000000e+00 1.041734050487e-04
1.765292829573e-02 2.151015536530e-02 0.000000000000e+00 1.041792118586e-04
1.545956070400e-02 2.313686763788e-02 0.000000000000e+00 1.041840326393e-04
1.311730909163e-02 2.454075922721e-02 0.000000000000e+00 1.041878266148e-04
1.064873062206e-02 2.570830988984e-02 0.000000000000e+00 1.041905636180e-04
8.077599055415e-03 2.662827547464e-02 0.000000000000e+00 1.041922241281e-04
5.428675794199e-03 2.729179621012e-02 0.000000000000e+00 1.041927991912e-04
2.727471417468e-03 2.769248202889e-02 0.000000000000e+00 1.041922902334e-04
1.703880122363e-18 2.782647410747e-02 0.000000000000e+00 1.041907087813e-04
-2.727471417468e-03 2.769248202889e-02 0.000000000000e+00 1.041880761004e-04
-5.428675794199e-03 2.729179621012e-02 0.000000000000e+00 1.041844227659e-04
-8.077599055415e-03 2.662827547464e-02 0.000000000000e+00 1.041797881768e-04
-1.064873062206e-02 2.570830988984e-02 0.000000000000e+00 1.041742200255e-04
-1.311730909163e-02 2.454075922721e-02 0.000000000000e+00 1.041677737319e-04
-1.545956070400e-02 2.313686763788e-02 0.000000000000e+00 1.041605118517e-04
-1.765292829573e-02 2.151015536530e-02 0.000000000000e+00 1.041525034645e-04
-1.967628853790e-02 1.967628853790e-02 0.000000000000e+00 1.041438235485e-04
-2.151015536530e-02 1.765292829573e-02 0.000000000000e+00 1.041345523454e-04
-2.313686763788e-02 1.545956070400e-02 0.000000000000e+00 1.041247747166e-04
-2.454075922721e-02 1.311730909163e-02 0.000000000000e+00 1.041145794942e-04
-2.570830988984e-02 1.064873062206e-02 0.000000000000e+00 1.041040588247e-04
-2.662827547464e-02 8.077599055415e-03 0.000000000000e+00 1.040933075056e-04
-2.729179621012e-02 5.428675794199e-03 0.000000000000e+00 1.040824223132e-04
-2.769248202889e-02 2.727471417468e-03 0.000000000000e+00 1.040715013197e-04
-2.782647410747e-02 3.407760244726e-18 0.000000000000e+00 1.040606431970e-04
-2.769248202889e-02 -2.727471417468e-03 0.000000000000e+00 1.040499465066e-04
-2.729179621012e-02 -5.428675794199e-03 0.000000000000e+00 1.040395089726e-04
-2.662827547464e-02 -8.077599055415e-03 0.000000000000e+00 1.040294267376e-04
-2.570830988984e-02 -1.064873062206e-02 0.000000000000e+00 1.040197936025e-04
-2.454075922721e-02 -1.311730909163e-02 0.000000000000e+00 1.040107002496e-04
-2.313686763788e-02 -1.545956070400e-02 0.000000000000e+00 1.040022334532e-04
-2.151015536530e-02 -1.765292829573e-02 0.000000000000e+00 1.039944752809e-04
-1.967628853790e-02 -1.967628853790e-02 0.000000000000e+00 1.039875022917e-04
-1.765292829573e-02 -2.151015536530e-02 0.000000000000e+00 1.039813847382e-04
-1.545956070400e-02 -2.313686763788e-02 0.000000000000e+00 1.039761857818e-04
-1.311730909163e-02 -2.454075922721e-02 0.000000000000e+00 1.039719607324e-04
-1.064873062206e-02 -2.570830988984e-02 0.000000000000e+00 1.039687563238e-04
-8.077599055415e-03 -2.662827547464e-02 0.000000000000e+00 1.039666100392e-04
-5.428675794199e-03 -2.729179621012e-02 0.000000000000e+00 1.039655495009e-04
-2.727471417468e-03 -2.769248202889e-02 0.000000000000e+00 1.039655919388e-04
-5.111640367090e-18 -2.782647410747e-02 0.000000000000e+00 1.039667437538e-04
2.727471417468e-03 -2.769248202889e-02 0.000000000000e+00 1.039690001904e-04
5.428675794199e-03 -2.729179621012e-02 0.000000000000e+00 1.039723451312e-04
8.077599055415e-03 -2.662827547464e-02 0.000000000000e+00 1.039767510277e-04
1.064873062206e-02 -2.570830988984e-02 0.000000000000e+00 1.039821789753e-04
1.311730909163e-02 -2.454075922721e-02 0.000000000000e+00 1.039885789416e-04
1.545956070400e-02 -2.313686763788e-02 0.000000000000e+00 1.039958901514e-04
1.765292829573e-02 -2.151015536530e-02 0.000000000000e+00 1.040040416295e-04
1.967628853790e-02 -1.967628853790e-02 0.000000000000e+00 1.040129528993e-04
2.151015536530e-02 -1.765292829573e-02 0.000000000000e+00 1.040225348295e-04
2.313686763788e-02 -1.545956070400e-02 0.000000000000e+00 1.040326906183e-04
2.454075922721e-02 -1.311730909163e-02 0.000000000000e+00 1.040433169021e-04
2.570830988984e-02 -1.064873062206e-02 0.000000000000e+00 1.040543049696e-04
2.662827547464e-02 -8.077599055415e-03 0.000000000000e+00 1.040655420620e-04
2.729179621012e-02 -5.428675794199e-03 0.000000000000e+00 1.040769127350e-04
2.769248202889e-02 -2.727471417468e-03 0.000000000000e+00 1.040883002594e-04
6.595904973622e-02 0.000000000000e+00 0.000000000000e+00 1.041203852615e-04
6.564143888329e-02 6.465117433999e-03 0.000000000000e+00 1.041448329217e-04
6.469166509066e-02 1.286797225292e-02 0.000000000000e+00 1.041684888523e-04
6.311887519915e-02 1.914690146469e-02 0.000000000000e+00 1.041911049440e-04
6.093821603518e-02 2.524143554859e-02 0.000000000000e+00 1.042124488007e-04
5.817068853858e-02 3.109288080980e-02 0.000000000000e+00 1.042323065372e-04
5.484294551202e-02 3.664488463170e-02 0.000000000000e+00 1.042504851304e-04
5.098703493997e-02 4.184397818247e-02 0.000000000000e+00 1.042668142903e-04
4.664009134910e-02 4.664009134910e-02 0.000000000000e+00 1.042811478384e-04
4.184397818247e-02 5.098703493997e-02 0.000000000000e+00 1.042933645970e-04
3.664488463170e-02 5.484294551202e-02 0.000000000000e+00 1.043033688083e-04
3.109288080980e-02 5.817068853858e-02 0.000000000000e+00 1.043110901166e-04
2.524143554859e-02 6.093821603518e-02 0.000000000000e+00 1.043164831597e-04
1.914690146469e-02 6.311887519915e-02 0.000000000000e+00 1.043195268210e-04
1.286797225292e-02 6.469166509066e-02 0.000000000000e+00 1.043202232024e-04
6.465117433999e-03 6.564143888329e-02 0.000000000000e+00 1.043185963789e-04
4.038826956713e-18 6.595904973622e-02 0.000000000000e+00 1.043146909954e-04
-6.465117433999e-03 6.564143888329e-02 0.000000000000e+00 1.043085707626e-04
-1.286797225292e-02 6.469166509066e-02 0.000000000000e+00 1.043003169061e-04
-1.914690146469e-02 6.311887519915e-02 0.000000000000e+00 1.042900266116e-04
-2.524143554859e-02 6.093821603518e-02 0.000000000000e+00 1.042778115051e-04
-3.109288080980e-02 5.817068853858e-02 0.000000000000e+00 1.042637961969e-04
-3.664488463170e-02 5.484294551202e-02 0.000000000000e+00 1.042481169081e-04
-4.184397818247e-02 5.098703493997e-02 0.000000000000e+00 1.042309201927e-04
-4.664009134910e-02 4.664009134910e-02 0.000000000000e+00 1.042123617582e-04
-5.098703493997e-02 4.184397818247e-02 0.000000000000e+00 1.041926053832e-04
-5.484294551202e-02 3.664488463170e-02 0.000000000000e+00 1.041718219214e-04
-5.817068853858e-02 3.109288080980e-02 0.000000000000e+00 1.041501883808e-04
-6.093821603518e-02 2.524143554859e-02 0.000000000000e+00 1.041278870594e-04
-6.311887519915e-02 1.914690146469e-02 0.000000000000e+00 1.041051047192e-04
-6.469166509066e-02 1.286797225292e-02 0.000000000000e+00 1.040820317746e-04
-6.564143888329e-02 6.465117433999e-03 0.000000000000e+00 1.040588614764e-04
-6.595904973622e-02 8.077653913426e-18 0.000000000000e+00 1.040357890644e-04
-6.564143888329e-02 -6.465117433999e-03 0.000000000000e+00 1.040130108698e-04
-6.469166509066e-02 -1.286797225292e-02 0.000000000000e+00 1.039907233432e-04
-6.311887519915e-02 -1.914690146469e-02 0.000000000000e+00 1.039691219909e-04
-6.093821603518e-02 -2.524143554859e-02 0.000000000000e+00 1.039484002006e-04
-5.817068853858e-02 -3.109288080980e-02 0.000000000000e+00 1.039287479444e-04
-5.484294551202e-02 -3.664488463170e-02 0.000000000000e+00 1.039103503478e-04
-5.098703493997e-02 -4.184397818247e-02 0.000000000000e+00 1.038933861224e-04
-4.664009134910e-02 -4.664009134910e-02 0.000000000000e+00 1.038780258630e-04
-4.184397818247e-02 -5.098703493997e-02 0.000000000000e+00 1.038644302183e-04
-3.664488463170e-02 -5.484294551202e-02 0.000000000000e+00 1.038527479527e-04
-3.109288080980e-02 -5.817068853858e-02 0.000000000000e+00 1.038431139244e-04
-2.524143554859e-02 -6.093821603518e-02 0.000000000000e+00 1.038356470131e-04
-1.914690146469e-02 -6.311887519915e-02 0.000000000000e+00 1.038304480404e-04
-1.286797225292e-02 -6.469166509066e-02 0.000000000000e+00 1.038275977328e-04
-6.465117433999e-03 -6.564143888329e-02 0.000000000000e+00 1.038271547842e-04
-1.211648087014e-17 -6.595904973622e-02 0.000000000000e+00 1.038291540788e-04
6.465117433999e-03 -6.564143888329e-02 0.000000000000e+00 1.038336051406e-04
1.286797225292e-02 -6.469166509066e-02 0.000000000000e+00 1.038404908727e-04
1.914690146469e-02 -6.311887519915e-02 0.000000000000e+00 1.038497666498e-04
2.524143554859e-02 -6.093821603518e-02 0.000000000000e+00 1.038613598204e-04
3.109288080980e-02 -5.817068853858e-02 0.000000000000e+00 1.038751696675e-04
3.664488463170e-02 -5.484294551202e-02 0.000000000000e+00 1.038910678648e-04
4.184397818247e-02 -5.098703493997e-02 0.000000000000e+00 1.039088994510e-04
4.664009134910e-02 -4.664009134910e-02 0.000000000000e+00 1.039284843320e-04
5.098703493997e-02 -4.184397818247e-02 0.000000000000e+00 1.039496192985e-04
5.484294551202e-02 -3.664488463170e-02 0.000000000000e+00 1.039720805350e-04
5.817068853858e-02 -3.109288080980e-02 0.000000000000e+00 1.039956265736e-04
6.093821603518e-02 -2.524143554859e-02 0.000000000000e+00 1.040200016326e-04
6.311887519915e-02 -1.914690146469e-02 0.000000000000e+00 1.040449392650e-04
6.469166509066e-02 -1.286797225292e-02 0.000000000000e+00 1.040701662307e-04
6.564143888329e-02 -6.465117433999e-03 0.000000000000e+00 1.040954064958e-04
1.288262690160e-01 0.000000000000e+00 0.000000000000e+00 1.041512664141e-04
1.282059353189e-01 1.262718248828e-02 0.000000000000e+00 1.041982325743e-04
1.263509083802e-01 2.513275830648e-02 0.000000000000e+00 1.042434627556e-04
1.232790531233e-01 3.739629192322e-02 0.000000000000e+00 1.042864513742e-04
1.190199531937e-01 4.929967880585e-02 0.000000000000e+00 1.043267352439e-04
1.136146260519e-01 6.072828283163e-02 0.000000000000e+00 1.043638999290e-04
1.071151279532e-01 7.157204029629e-02 0.000000000000e+00 1.043975845796e-04
9.958405261712e-02 8.172651988764e-02 0.000000000000e+00 1.044274851841e-04
9.109392841621e-02 9.109392841621e-02 0.000000000000e+00 1.044533562447e-04
8.172651988764e-02 9.958405261712e-02 0.000000000000e+00 1.044750109506e-04
7.157204029629e-02 1.071151279532e-01 0.000000000000e+00 1.044923199777e-04
6.072828283163e-02 1.136146260519e-01 0.000000000000e+00 1.045052090968e-04
4.929967880585e-02 1.190199531937e-01 0.000000000000e+00 1.045136558044e-04
3.739629192322e-02 1.232790531233e-01 0.000000000000e+00 1.045176852110e-04
2.513275830648e-02 1.263509083802e-01 0.000000000000e+00 1.045173654318e-04
1.262718248828e-02 1.282059353189e-01 0.000000000000e+00 1.045128027141e-04
7.888333899830e-18 1.288262690160e-01 0.000000000000e+00 1.045041365210e-04
-1.262718248828e-02 1.282059353189e-01 0.000000000000e+00 1.044915347609e-04
-2.513275830648e-02 1.263509083802e-01 0.000000000000e+00 1.044751893181e-04
-3.739629192322e-02 1.232790531233e-01 0.000000000000e+00 1.044553120048e-04
-4.929967880585e-02 1.190199531937e-01 0.000000000000e+00 1.044321310105e-04
-6.072828283163e-02 1.136146260519e-01 0.000000000000e+00 1.044058878928e-04
-7.157204029629e-02 1.071151279532e-01 0.000000000000e+00 1.043768351153e-04
-8.172651988764e-02 9.958405261712e-02 0.000000000000e+00 1.043452341154e-04
-9.109392841621e-02 9.109392841621e-02 0.000000000000e+00 1.043113538563e-04
-9.958405261712e-02 8.172651988764e-02 0.000000000000e+00 1.042754698072e-04
-1.071151279532e-01 7.157204029629e-02 0.000000000000e+00 1.042378632829e-04
-1.136146260519e-01 6.072828283163e-02 0.000000000000e+00 1.041988210697e-04
-1.190199531937e-01 4.929967880585e-02 0.000000000000e+00 1.041586352636e-04
-1.232790531233e-01 3.739629192322e-02 0.000000000000e+00 1.041176032496e-04
-1.263509083802e-01 2.513275830648e-02 0.000000000000e+00 1.040760277506e-04
-1.282059353189e-01 1.262718248828e-02 0.000000000000e+00 1.040342168821e-04
-1.288262690160e-01 1.577666779966e-17 0.000000000000e+00 1.039924841460e-04
-1.282059353189e-01 -1.262718248828e-02 0.000000000000e+00 1.039511483007e-04
-1.263509083802e-01 -2.513275830648e-02 0.000000000000e+00 1.039105330440e-04
-1.232790531233e-01 -3.739629192322e-02 0.000000000000e+00 1.038709664428e-04
-1.190199531937e-01 -4.929967880585e-02 0.000000000000e+00 1.038327800444e-04
-1.136146260519e-01 -6.072828283163e-02 0.000000000000e+00 1.037963076016e-04
-1.071151279532e-01 -7.157204029629e-02 0.000000000000e+00 1.037618833508e-04
-9.958405261712e-02 -8.172651988764e-02 0.000000000000e+00 1.037298397835e-04
-9.109392841621e-02 -9.109392841621e-02 0.000000000000e+00 1.037005048672e-04
-8.172651988764e-02 -9.958405261712e-02 0.000000000000e+00 1.036741986858e-04
-7.157204029629e-02 -1.071151279532e-01 0.000000000000e+00 1.036512294933e-04
-6.072828283163e-02 -1.136146260519e-01 0.000000000000e+00 1.036318892031e-04
-4.929967880585e-02 -1.190199531937e-01 0.000000000000e+00 1.036164483663e-04
-3.739629192322e-02 -1.232790531233e-01 0.000000000000e+00 1.036051507309e-04
-2.513275830648e-02 -1.263509083802e-01 0.000000000000e+00 1.035982075068e-04
-1.262718248828e-02 -1.282059353189e-01 0.000000000000e+00 1.035957915031e-04
-2.366500169949e-17 -1.288262690160e-01 0.000000000000e+00 1.035980313283e-04
1.262718248828e-02 -1.282059353189e-01 0.000000000000e+00 1.036050058777e-04
2.513275830648e-02 -1.263509083802e-01 0.000000000000e+00 1.036167393409e-04
3.739629192322e-02 -1.232790531233e-01 0.000000000000e+00 1.036331969742e-04
4.929967880585e-02 -1.190199531937e-01 0.000000000000e+00 1.036542818715e-04
6.072828283163e-02 -1.136146260519e-01 0.000000000000e+00 1.036798329487e-04
7.157204029629e-02 -1.071151279532e-01 0.000000000000e+00 1.037096243247e-04
8.172651988764e-02 -9.958405261712e-02 0.000000000000e+00 1.037433662352e-04
9.109392841621e-02 -9.109392841621e-02 0.000000000000e+00 1.037807075593e-04
9.958405261712e-02 -8.172651988764e-02 0.000000000000e+00 1.038212399799e-04
1.071151279532e-01 -7.157204029629e-02 0.000000000000e+00 1.038645037247e-04
1.136146260519e-01 -6.072828283163e-02 0.000000000000e+00 1.039099947714e-04
1.190199531937e-01 -4.929967880585e-02 0.000000000000e+00 1.039571733323e-04
1.232790531233e-01 -3.739629192322e-02 0.000000000000e+00 1.040054733735e-04
1.263509083802e-01 -2.513275830648e-02 0.000000000000e+00 1.040543128773e-04
1.282059353189e-01 -1.262718248828e-02 0.000000000000e+00 1.041031045196e-04
2.226117928597e-01 0.000000000000e+00 0.000000000000e+00 1.041915062818e-04
2.215398562311e-01 2.181977133975e-02 0.000000000000e+00 1.042738975380e-04
2.183343696810e-01 4.342940635359e-02 0.000000000000e+00 1.043526821066e-04
2.130262037971e-01 6.462079244332e-02 0.000000000000e+00 1.044269003041e-04
2.056664791187e-01 8.518984497651e-02 0.000000000000e+00 1.044957006729e-04
1.963260738177e-01 1.049384727331e-01 0.000000000000e+00 1.045583534770e-04
1.850949411031e-01 1.236764856320e-01 0.000000000000e+00 1.046142595394e-04
1.720812429224e-01 1.412234263658e-01 0.000000000000e+00 1.046629543295e-04
1.574103083032e-01 1.574103083032e-01 0.000000000000e+00 1.047041074587e-04
1.412234263658e-01 1.720812429224e-01 0.000000000000e+00 1.047375179700e-04
1.236764856320e-01 1.850949411031e-01 0.000000000000e+00 1.047631059950e-04
1.049384727331e-01 1.963260738177e-01 0.000000000000e+00 1.047809015047e-04
8.518984497651e-02 2.056664791187e-01 0.000000000000e+00 1.047910309618e-04
6.462079244332e-02 2.130262037971e-01 0.000000000000e+00 1.047937027246e-04
4.342940635359e-02 2.183343696810e-01 0.000000000000e+00 1.047891920248e-04
2.181977133975e-02 2.215398562311e-01 0.000000000000e+00 1.047778262737e-04
1.363104097891e-17 2.226117928597e-01 0.000000000000e+00 1.047599713414e-04
-2.181977133975e-02 2.215398562311e-01 0.000000000000e+00 1.047360193102e-04
-4.342940635359e-02 2.183343696810e-01 0.000000000000e+00 1.047063780556e-04
-6.462079244332e-02 2.130262037971e-01 0.000000000000e+00 1.046714628449e-04
-8.518984497651e-02 2.056664791187e-01 0.000000000000e+00 1.046316900010e-04
-1.049384727331e-01 1.963260738177e-01 0.000000000000e+00 1.045874725498e-04
-1.236764856320e-01 1.850949411031e-01 0.000000000000e+00 1.045392176671e-04
-1.412234263658e-01 1.720812429224e-01 0.000000000000e+00 1.044873256744e-04
-1.574103083032e-01 1.574103083032e-01 0.000000000000e+00 1.044321902925e-04
-1.720812429224e-01 1.412234263658e-01 0.000000000000e+00 1.043741998543e-04
-1.850949411031e-01 1.236764856320e-01 0.000000000000e+00 1.043137391988e-04
-1.963260738177e-01 1.049384727331e-01 0.000000000000e+00 1.042511920008e-04
-2.056664791187e-01 8.518984497651e-02 0.000000000000e+00 1.041869433424e-04
-2.130262037971e-01 6.462079244332e-02 0.000000000000e+00 1.041213823813e-04
-2.183343696810e-01 4.342940635359e-02 0.000000000000e+00 1.040549050175e-04
-2.215398562311e-01 2.181977133975e-02 0.000000000000e+00 1.039879164944e-04
-2.226117928597e-01 2.726208195781e-17 0.000000000000e+00 1.039208338904e-04
-2.215398562311e-01 -2.181977133975e-02 0.000000000000e+00 1.038540884548e-04
-2.183343696810e-01 -4.342940635359e-02 0.000000000000e+00 1.037881277288e-04
-2.130262037971e-01 -6.462079244332e-02 0.000000000000e+00 1.037234173549e-04
-2.056664791187e-01 -8.518984497651e-02 0.000000000000e+00 1.036604424397e-04
-1.963260738177e-01 -1.049384727331e-01 0.000000000000e+00 1.035997082841e-04
-1.850949411031e-01 -1.236764856320e-01 0.000000000000e+00 1.035417402571e-04
-1.720812429224e-01 -1.412234263658e-01 0.000000000000e+00 1.034870825543e-04
-1.574103083032e-01 -1.574103083032e-01 0.000000000000e+00 1.034362955748e-04
-1.412234263658e-01 -1.720812429224e-01 0.000000000000e+00 1.033899516614e-04
-1.236764856320e-01 -1.850949411031e-01 0.000000000000e+00 1.033486289934e-04
-1.049384727331e-01 -1.963260738177e-01 0.000000000000e+00 1.033129034915e-04
-8.518984497651e-02 -2.056664791187e-01 0.000000000000e+00 1.032833386964e-04
-6.462079244332e-02 -2.130262037971e-01 0.000000000000e+00 1.032604737037e-04
-4.342940635359e-02 -2.183343696810e-01 0.000000000000e+00 1.032448093764e-04
-2.181977133975e-02 -2.215398562311e-01 0.000000000000e+00 1.032367932024e-04
-4.089312293672e-17 -2.226117928597e-01 0.000000000000e+00 1.032368032993e-04
2.181977133975e-02 -2.215398562311e-01 0.000000000000e+00 1.032451321978e-04
4.342940635359e-02 -2.183343696810e-01 0.000000000000e+00 1.032619711261e-04
6.462079244332e-02 -2.130262037971e-01 0.000000000000e+00 1.032873955824e-04
8.518984497651e-02 -2.056664791187e-01 0.000000000000e+00 1.033213529962e-04
1.049384727331e-01 -1.963260738177e-01 0.000000000000e+00 1.033636532506e-04
1.236764856320e-01 -1.850949411031e-01 0.000000000000e+00 1.034139627568e-04
1.412234263658e-01 -1.720812429224e-01 0.000000000000e+00 1.034718026461e-04
1.574103083032e-01 -1.574103083032e-01 0.000000000000e+00 1.035365514730e-04
1.720812429224e-01 -1.412234263658e-01 0.000000000000e+00 1.036074526256e-04
1.850949411031e-01 -1.236764856320e-01 0.000000000000e+00 1.036836264078e-04
1.963260738177e-01 -1.049384727331e-01 0.000000000000e+00 1.037640865288e-04
2.056664791187e-01 -8.518984497651e-02 0.000000000000e+00 1.038477605017e-04
2.130262037971e-01 -6.462079244332e-02 0.000000000000e+00 1.039335132410e-04
2.183343696810e-01 -4.342940635359e-02 0.000000000000e+00 1.040201729729e-04
2.215398562311e-01 -2.181977133975e-02 0.000000000000e+00 1.041065584371e-04
3.534992821800e-01 0.000000000000e+00 0.000000000000e+00 1.042384943514e-04
3.517970865151e-01 3.464898874784e-02 0.000000000000e+00 1.043745112938e-04
3.467068925953e-01 6.896428879297e-02 0.000000000000e+00 1.045032712209e-04
3.382777217705e-01 1.026154250373e-01 0.000000000000e+00 1.046230280158e-04